<?xml version="1.0" encoding="UTF-8"?>

<!-- generated on 01/20/19 10:32:06 by Eclipse SUMO GUI Version 1.1.0
<configuration xmlns:xsi="http://www.w3.org/2001/XMLSchema-instance" xsi:noNamespaceSchemaLocation="http://sumo.dlr.de/xsd/sumoConfiguration.xsd">

    <input>
        <net-file value="data/cross.net.xml"/>
        <route-files value="data/cross.rou.xml"/>
        <additional-files value="data/cross.det.xml"/>
    </input>

    <output>
        <tripinfo-output value="tripinfo.xml"/>
    </output>

    <time>
        <begin value="0"/>
    </time>

    <report>
        <verbose value="true"/>
        <no-step-log value="true"/>
    </report>

    <traci_server>
        <remote-port value="50112"/>
    </traci_server>

</configuration>
-->

<tripinfos xmlns:xsi="http://www.w3.org/2001/XMLSchema-instance" xsi:noNamespaceSchemaLocation="http://sumo.dlr.de/xsd/tripinfo_file.xsd">
    <tripinfo id="left_0" depart="7.00" departLane="52o_0" departPos="5.10" departSpeed="0.00" departDelay="0.00" arrival="95.00" arrivalLane="51i_0" arrivalPos="10.00" arrivalSpeed="12.15" duration="88.00" routeLength="1015.10" waitingTime="0.00" waitingCount="0" stopTime="0.00" timeLoss="14.58" rerouteNo="0" devices="tripinfo_left_0" vType="typeWE" speedFactor="1.06" vaporized=""/>
    <tripinfo id="right_4" depart="16.00" departLane="51o_0" departPos="5.10" departSpeed="0.00" departDelay="0.00" arrival="106.00" arrivalLane="52i_0" arrivalPos="10.00" arrivalSpeed="11.60" duration="90.00" routeLength="1015.10" waitingTime="0.00" waitingCount="0" stopTime="0.00" timeLoss="14.80" rerouteNo="0" devices="tripinfo_right_4" vType="typeWE" speedFactor="1.03" vaporized=""/>
    <tripinfo id="left_1" depart="12.00" departLane="52o_0" departPos="5.10" departSpeed="0.00" departDelay="4.00" arrival="108.00" arrivalLane="51i_0" arrivalPos="10.00" arrivalSpeed="10.85" duration="96.00" routeLength="1015.10" waitingTime="0.00" waitingCount="0" stopTime="0.00" timeLoss="16.26" rerouteNo="0" devices="tripinfo_left_1" vType="typeWE" speedFactor="0.94" vaporized=""/>
    <tripinfo id="left_3" depart="17.00" departLane="52o_0" departPos="5.10" departSpeed="0.00" departDelay="6.00" arrival="109.00" arrivalLane="51i_0" arrivalPos="10.00" arrivalSpeed="10.67" duration="92.00" routeLength="1015.10" waitingTime="0.00" waitingCount="0" stopTime="0.00" timeLoss="19.59" rerouteNo="0" devices="tripinfo_left_3" vType="typeWE" speedFactor="1.08" vaporized=""/>
    <tripinfo id="left_6" depart="22.00" departLane="52o_0" departPos="5.10" departSpeed="0.00" departDelay="1.00" arrival="111.00" arrivalLane="51i_0" arrivalPos="10.00" arrivalSpeed="10.88" duration="89.00" routeLength="1015.10" waitingTime="0.00" waitingCount="0" stopTime="0.00" timeLoss="15.09" rerouteNo="0" devices="tripinfo_left_6" vType="typeWE" speedFactor="1.05" vaporized=""/>
    <tripinfo id="right_5" depart="21.00" departLane="51o_0" departPos="5.10" departSpeed="0.00" departDelay="4.00" arrival="122.00" arrivalLane="52i_0" arrivalPos="10.00" arrivalSpeed="9.75" duration="101.00" routeLength="1015.10" waitingTime="0.00" waitingCount="0" stopTime="0.00" timeLoss="14.48" rerouteNo="0" devices="tripinfo_right_5" vType="typeWE" speedFactor="0.83" vaporized=""/>
    <tripinfo id="left_7" depart="27.00" departLane="52o_0" departPos="5.10" departSpeed="0.00" departDelay="3.00" arrival="123.00" arrivalLane="51i_0" arrivalPos="10.00" arrivalSpeed="9.88" duration="96.00" routeLength="1015.10" waitingTime="0.00" waitingCount="0" stopTime="0.00" timeLoss="14.29" rerouteNo="0" devices="tripinfo_left_7" vType="typeWE" speedFactor="0.89" vaporized=""/>
    <tripinfo id="left_8" depart="32.00" departLane="52o_0" departPos="5.10" departSpeed="0.00" departDelay="0.00" arrival="126.00" arrivalLane="51i_0" arrivalPos="10.00" arrivalSpeed="10.53" duration="94.00" routeLength="1015.10" waitingTime="0.00" waitingCount="0" stopTime="0.00" timeLoss="14.86" rerouteNo="0" devices="tripinfo_left_8" vType="typeWE" speedFactor="0.94" vaporized=""/>
    <tripinfo id="right_10" depart="52.00" departLane="51o_0" departPos="5.10" departSpeed="0.00" departDelay="0.00" arrival="139.00" arrivalLane="52i_0" arrivalPos="10.00" arrivalSpeed="12.29" duration="87.00" routeLength="1015.10" waitingTime="0.00" waitingCount="0" stopTime="0.00" timeLoss="14.18" rerouteNo="0" devices="tripinfo_right_10" vType="typeWE" speedFactor="1.09" vaporized=""/>
    <tripinfo id="up_2" depart="8.00" departLane="53o_0" departPos="7.10" departSpeed="0.00" departDelay="0.00" arrival="155.00" arrivalLane="54i_0" arrivalPos="10.00" arrivalSpeed="11.90" duration="147.00" routeLength="1013.10" waitingTime="47.00" waitingCount="1" stopTime="0.00" timeLoss="75.96" rerouteNo="0" devices="tripinfo_up_2" vType="typeNS" speedFactor="1.01" vaporized=""/>
    <tripinfo id="down_9" depart="42.00" departLane="54o_0" departPos="7.10" departSpeed="0.00" departDelay="0.00" arrival="162.00" arrivalLane="53i_0" arrivalPos="10.00" arrivalSpeed="10.21" duration="120.00" routeLength="1013.10" waitingTime="10.00" waitingCount="1" stopTime="0.00" timeLoss="36.66" rerouteNo="0" devices="tripinfo_down_9" vType="typeNS" speedFactor="0.86" vaporized=""/>
    <tripinfo id="up_16" depart="64.00" departLane="53o_0" departPos="7.10" departSpeed="0.00" departDelay="0.00" arrival="163.00" arrivalLane="54i_0" arrivalPos="10.00" arrivalSpeed="10.02" duration="99.00" routeLength="1013.10" waitingTime="0.00" waitingCount="0" stopTime="0.00" timeLoss="17.32" rerouteNo="0" devices="tripinfo_up_16" vType="typeNS" speedFactor="0.88" vaporized=""/>
    <tripinfo id="up_22" depart="83.00" departLane="53o_0" departPos="7.10" departSpeed="0.00" departDelay="0.00" arrival="174.00" arrivalLane="54i_0" arrivalPos="10.00" arrivalSpeed="11.28" duration="91.00" routeLength="1013.10" waitingTime="0.00" waitingCount="0" stopTime="0.00" timeLoss="16.93" rerouteNo="0" devices="tripinfo_up_22" vType="typeNS" speedFactor="0.98" vaporized=""/>
    <tripinfo id="down_25" depart="97.00" departLane="54o_0" departPos="7.10" departSpeed="0.00" departDelay="0.00" arrival="196.00" arrivalLane="53i_0" arrivalPos="10.00" arrivalSpeed="10.29" duration="99.00" routeLength="1013.10" waitingTime="0.00" waitingCount="0" stopTime="0.00" timeLoss="16.85" rerouteNo="0" devices="tripinfo_down_25" vType="typeNS" speedFactor="0.87" vaporized=""/>
    <tripinfo id="down_27" depart="103.00" departLane="54o_0" departPos="7.10" departSpeed="0.00" departDelay="1.00" arrival="198.00" arrivalLane="53i_0" arrivalPos="10.00" arrivalSpeed="10.76" duration="95.00" routeLength="1013.10" waitingTime="0.00" waitingCount="0" stopTime="0.00" timeLoss="19.22" rerouteNo="0" devices="tripinfo_down_27" vType="typeNS" speedFactor="0.95" vaporized=""/>
    <tripinfo id="up_32" depart="136.00" departLane="53o_0" departPos="7.10" departSpeed="0.00" departDelay="0.00" arrival="225.00" arrivalLane="54i_0" arrivalPos="10.00" arrivalSpeed="11.65" duration="89.00" routeLength="1013.10" waitingTime="0.00" waitingCount="0" stopTime="0.00" timeLoss="17.57" rerouteNo="0" devices="tripinfo_up_32" vType="typeNS" speedFactor="1.01" vaporized=""/>
    <tripinfo id="right_13" depart="59.00" departLane="51o_0" departPos="5.10" departSpeed="0.00" departDelay="0.00" arrival="252.00" arrivalLane="52i_0" arrivalPos="10.00" arrivalSpeed="12.60" duration="193.00" routeLength="1015.10" waitingTime="93.00" waitingCount="1" stopTime="0.00" timeLoss="121.36" rerouteNo="0" devices="tripinfo_right_13" vType="typeWE" speedFactor="1.12" vaporized=""/>
    <tripinfo id="left_11" depart="55.00" departLane="52o_0" departPos="5.10" departSpeed="0.00" departDelay="0.00" arrival="254.00" arrivalLane="51i_0" arrivalPos="10.00" arrivalSpeed="11.66" duration="199.00" routeLength="1015.10" waitingTime="99.00" waitingCount="1" stopTime="0.00" timeLoss="123.86" rerouteNo="0" devices="tripinfo_left_11" vType="typeWE" speedFactor="1.03" vaporized=""/>
    <tripinfo id="left_12" depart="60.00" departLane="52o_0" departPos="5.10" departSpeed="0.00" departDelay="2.00" arrival="255.00" arrivalLane="51i_0" arrivalPos="10.00" arrivalSpeed="11.54" duration="195.00" routeLength="1015.10" waitingTime="95.00" waitingCount="1" stopTime="0.00" timeLoss="121.14" rerouteNo="0" devices="tripinfo_left_12" vType="typeWE" speedFactor="1.05" vaporized=""/>
    <tripinfo id="left_14" depart="65.00" departLane="52o_0" departPos="5.10" departSpeed="0.00" departDelay="6.00" arrival="259.00" arrivalLane="51i_0" arrivalPos="10.00" arrivalSpeed="10.70" duration="194.00" routeLength="1015.10" waitingTime="91.00" waitingCount="1" stopTime="0.00" timeLoss="117.51" rerouteNo="0" devices="tripinfo_left_14" vType="typeWE" speedFactor="0.99" vaporized=""/>
    <tripinfo id="right_17" depart="69.00" departLane="51o_0" departPos="5.10" departSpeed="0.00" departDelay="0.00" arrival="261.00" arrivalLane="52i_0" arrivalPos="10.00" arrivalSpeed="10.68" duration="192.00" routeLength="1015.10" waitingTime="87.00" waitingCount="1" stopTime="0.00" timeLoss="112.54" rerouteNo="0" devices="tripinfo_right_17" vType="typeWE" speedFactor="0.94" vaporized=""/>
    <tripinfo id="right_19" depart="74.00" departLane="51o_0" departPos="5.10" departSpeed="0.00" departDelay="3.00" arrival="262.00" arrivalLane="52i_0" arrivalPos="10.00" arrivalSpeed="11.10" duration="188.00" routeLength="1015.10" waitingTime="82.00" waitingCount="1" stopTime="0.00" timeLoss="118.21" rerouteNo="0" devices="tripinfo_right_19" vType="typeWE" speedFactor="1.16" vaporized=""/>
    <tripinfo id="left_15" depart="70.00" departLane="52o_0" departPos="5.10" departSpeed="0.00" departDelay="10.00" arrival="264.00" arrivalLane="51i_0" arrivalPos="10.00" arrivalSpeed="10.84" duration="194.00" routeLength="1015.10" waitingTime="88.00" waitingCount="1" stopTime="0.00" timeLoss="114.63" rerouteNo="0" devices="tripinfo_left_15" vType="typeWE" speedFactor="0.93" vaporized=""/>
    <tripinfo id="left_18" depart="75.00" departLane="52o_0" departPos="5.10" departSpeed="0.00" departDelay="5.00" arrival="266.00" arrivalLane="51i_0" arrivalPos="10.00" arrivalSpeed="10.65" duration="191.00" routeLength="1015.10" waitingTime="86.00" waitingCount="1" stopTime="0.00" timeLoss="111.98" rerouteNo="0" devices="tripinfo_left_18" vType="typeWE" speedFactor="0.94" vaporized=""/>
    <tripinfo id="right_23" depart="96.00" departLane="51o_0" departPos="5.10" departSpeed="0.00" departDelay="0.00" arrival="267.00" arrivalLane="52i_0" arrivalPos="10.00" arrivalSpeed="10.50" duration="171.00" routeLength="1015.10" waitingTime="61.00" waitingCount="1" stopTime="0.00" timeLoss="89.33" rerouteNo="0" devices="tripinfo_right_23" vType="typeWE" speedFactor="0.89" vaporized=""/>
    <tripinfo id="left_20" depart="80.00" departLane="52o_0" departPos="5.10" departSpeed="0.00" departDelay="8.00" arrival="268.00" arrivalLane="51i_0" arrivalPos="10.00" arrivalSpeed="11.01" duration="188.00" routeLength="1015.10" waitingTime="80.00" waitingCount="1" stopTime="0.00" timeLoss="112.58" rerouteNo="0" devices="tripinfo_left_20" vType="typeWE" speedFactor="1.02" vaporized=""/>
    <tripinfo id="right_26" depart="102.00" departLane="51o_0" departPos="5.10" departSpeed="0.00" departDelay="0.00" arrival="269.00" arrivalLane="52i_0" arrivalPos="10.00" arrivalSpeed="10.60" duration="167.00" routeLength="1015.10" waitingTime="56.00" waitingCount="1" stopTime="0.00" timeLoss="86.61" rerouteNo="0" devices="tripinfo_right_26" vType="typeWE" speedFactor="0.92" vaporized=""/>
    <tripinfo id="left_21" depart="85.00" departLane="52o_0" departPos="5.10" departSpeed="0.00" departDelay="11.00" arrival="270.00" arrivalLane="51i_0" arrivalPos="10.00" arrivalSpeed="11.62" duration="185.00" routeLength="1015.10" waitingTime="78.00" waitingCount="1" stopTime="0.00" timeLoss="108.90" rerouteNo="0" devices="tripinfo_left_21" vType="typeWE" speedFactor="1.01" vaporized=""/>
    <tripinfo id="right_28" depart="109.00" departLane="51o_0" departPos="5.10" departSpeed="0.00" departDelay="1.00" arrival="271.00" arrivalLane="52i_0" arrivalPos="10.00" arrivalSpeed="11.10" duration="162.00" routeLength="1015.10" waitingTime="52.00" waitingCount="1" stopTime="0.00" timeLoss="90.78" rerouteNo="0" devices="tripinfo_right_28" vType="typeWE" speedFactor="1.13" vaporized=""/>
    <tripinfo id="right_29" depart="116.00" departLane="51o_0" departPos="5.10" departSpeed="0.00" departDelay="0.00" arrival="273.00" arrivalLane="52i_0" arrivalPos="10.00" arrivalSpeed="10.91" duration="157.00" routeLength="1015.10" waitingTime="44.00" waitingCount="1" stopTime="0.00" timeLoss="76.95" rerouteNo="0" devices="tripinfo_right_29" vType="typeWE" speedFactor="0.93" vaporized=""/>
    <tripinfo id="right_30" depart="123.00" departLane="51o_0" departPos="5.10" departSpeed="0.00" departDelay="2.00" arrival="274.00" arrivalLane="52i_0" arrivalPos="10.00" arrivalSpeed="10.57" duration="151.00" routeLength="1015.10" waitingTime="40.00" waitingCount="1" stopTime="0.00" timeLoss="81.87" rerouteNo="0" devices="tripinfo_right_30" vType="typeWE" speedFactor="1.18" vaporized=""/>
    <tripinfo id="right_33" depart="140.00" departLane="51o_0" departPos="5.10" departSpeed="0.00" departDelay="0.00" arrival="276.00" arrivalLane="52i_0" arrivalPos="10.00" arrivalSpeed="11.79" duration="136.00" routeLength="1015.10" waitingTime="26.00" waitingCount="1" stopTime="0.00" timeLoss="66.39" rerouteNo="0" devices="tripinfo_right_33" vType="typeWE" speedFactor="1.17" vaporized=""/>
    <tripinfo id="left_24" depart="96.00" departLane="52o_0" departPos="5.10" departSpeed="0.00" departDelay="0.00" arrival="278.00" arrivalLane="51i_0" arrivalPos="10.00" arrivalSpeed="9.71" duration="182.00" routeLength="1015.10" waitingTime="68.00" waitingCount="1" stopTime="0.00" timeLoss="95.41" rerouteNo="0" devices="tripinfo_left_24" vType="typeWE" speedFactor="0.83" vaporized=""/>
    <tripinfo id="right_34" depart="145.00" departLane="51o_0" departPos="5.10" departSpeed="0.00" departDelay="2.00" arrival="278.00" arrivalLane="52i_0" arrivalPos="10.00" arrivalSpeed="11.42" duration="133.00" routeLength="1015.10" waitingTime="22.00" waitingCount="1" stopTime="0.00" timeLoss="56.24" rerouteNo="0" devices="tripinfo_right_34" vType="typeWE" speedFactor="0.99" vaporized=""/>
    <tripinfo id="right_40" depart="172.00" departLane="51o_0" departPos="5.10" departSpeed="0.00" departDelay="0.00" arrival="279.00" arrivalLane="52i_0" arrivalPos="10.00" arrivalSpeed="11.38" duration="107.00" routeLength="1015.10" waitingTime="0.00" waitingCount="0" stopTime="0.00" timeLoss="32.14" rerouteNo="0" devices="tripinfo_right_40" vType="typeWE" speedFactor="1.03" vaporized=""/>
    <tripinfo id="left_31" depart="127.00" departLane="52o_0" departPos="5.10" departSpeed="0.00" departDelay="0.00" arrival="280.00" arrivalLane="51i_0" arrivalPos="10.00" arrivalSpeed="10.29" duration="153.00" routeLength="1015.10" waitingTime="38.00" waitingCount="1" stopTime="0.00" timeLoss="83.11" rerouteNo="0" devices="tripinfo_left_31" vType="typeWE" speedFactor="1.15" vaporized=""/>
    <tripinfo id="right_44" depart="182.00" departLane="51o_0" departPos="5.10" departSpeed="0.00" departDelay="0.00" arrival="281.00" arrivalLane="52i_0" arrivalPos="10.00" arrivalSpeed="12.20" duration="99.00" routeLength="1015.10" waitingTime="0.00" waitingCount="0" stopTime="0.00" timeLoss="24.72" rerouteNo="0" devices="tripinfo_right_44" vType="typeWE" speedFactor="1.04" vaporized=""/>
    <tripinfo id="left_35" depart="161.00" departLane="52o_0" departPos="5.10" departSpeed="0.00" departDelay="0.00" arrival="282.00" arrivalLane="51i_0" arrivalPos="10.00" arrivalSpeed="10.76" duration="121.00" routeLength="1015.10" waitingTime="7.00" waitingCount="1" stopTime="0.00" timeLoss="45.75" rerouteNo="0" devices="tripinfo_left_35" vType="typeWE" speedFactor="1.02" vaporized=""/>
    <tripinfo id="right_45" depart="187.00" departLane="51o_0" departPos="5.10" departSpeed="0.00" departDelay="0.00" arrival="283.00" arrivalLane="52i_0" arrivalPos="10.00" arrivalSpeed="12.45" duration="96.00" routeLength="1015.10" waitingTime="0.00" waitingCount="0" stopTime="0.00" timeLoss="23.19" rerouteNo="0" devices="tripinfo_right_45" vType="typeWE" speedFactor="1.09" vaporized=""/>
    <tripinfo id="left_36" depart="166.00" departLane="52o_0" departPos="5.10" departSpeed="0.00" departDelay="4.00" arrival="284.00" arrivalLane="51i_0" arrivalPos="10.00" arrivalSpeed="11.19" duration="118.00" routeLength="1015.10" waitingTime="3.00" waitingCount="1" stopTime="0.00" timeLoss="40.41" rerouteNo="0" devices="tripinfo_left_36" vType="typeWE" speedFactor="0.97" vaporized=""/>
    <tripinfo id="left_41" depart="173.00" departLane="52o_0" departPos="5.10" departSpeed="0.00" departDelay="0.00" arrival="286.00" arrivalLane="51i_0" arrivalPos="10.00" arrivalSpeed="11.21" duration="113.00" routeLength="1015.10" waitingTime="0.00" waitingCount="0" stopTime="0.00" timeLoss="34.49" rerouteNo="0" devices="tripinfo_left_41" vType="typeWE" speedFactor="0.96" vaporized=""/>
    <tripinfo id="left_42" depart="178.00" departLane="52o_0" departPos="5.10" departSpeed="0.00" departDelay="4.00" arrival="287.00" arrivalLane="51i_0" arrivalPos="10.00" arrivalSpeed="11.13" duration="109.00" routeLength="1015.10" waitingTime="0.00" waitingCount="0" stopTime="0.00" timeLoss="36.79" rerouteNo="0" devices="tripinfo_left_42" vType="typeWE" speedFactor="1.09" vaporized=""/>
    <tripinfo id="left_43" depart="183.00" departLane="52o_0" departPos="5.10" departSpeed="0.00" departDelay="8.00" arrival="289.00" arrivalLane="51i_0" arrivalPos="10.00" arrivalSpeed="11.66" duration="106.00" routeLength="1015.10" waitingTime="0.00" waitingCount="0" stopTime="0.00" timeLoss="31.37" rerouteNo="0" devices="tripinfo_left_43" vType="typeWE" speedFactor="1.04" vaporized=""/>
    <tripinfo id="left_46" depart="190.00" departLane="52o_0" departPos="5.10" departSpeed="0.00" departDelay="0.00" arrival="291.00" arrivalLane="51i_0" arrivalPos="10.00" arrivalSpeed="11.64" duration="101.00" routeLength="1015.10" waitingTime="0.00" waitingCount="0" stopTime="0.00" timeLoss="24.44" rerouteNo="0" devices="tripinfo_left_46" vType="typeWE" speedFactor="1.00" vaporized=""/>
    <tripinfo id="right_47" depart="194.00" departLane="51o_0" departPos="5.10" departSpeed="0.00" departDelay="0.00" arrival="292.00" arrivalLane="52i_0" arrivalPos="10.00" arrivalSpeed="10.66" duration="98.00" routeLength="1015.10" waitingTime="0.00" waitingCount="0" stopTime="0.00" timeLoss="16.36" rerouteNo="0" devices="tripinfo_right_47" vType="typeWE" speedFactor="0.90" vaporized=""/>
    <tripinfo id="left_48" depart="200.00" departLane="52o_0" departPos="5.10" departSpeed="0.00" departDelay="0.00" arrival="297.00" arrivalLane="51i_0" arrivalPos="10.00" arrivalSpeed="10.12" duration="97.00" routeLength="1015.10" waitingTime="0.00" waitingCount="0" stopTime="0.00" timeLoss="14.50" rerouteNo="0" devices="tripinfo_left_48" vType="typeWE" speedFactor="0.88" vaporized=""/>
    <tripinfo id="left_51" depart="211.00" departLane="52o_0" departPos="5.10" departSpeed="0.00" departDelay="0.00" arrival="299.00" arrivalLane="51i_0" arrivalPos="10.00" arrivalSpeed="10.40" duration="88.00" routeLength="1015.10" waitingTime="0.00" waitingCount="0" stopTime="0.00" timeLoss="18.51" rerouteNo="0" devices="tripinfo_left_51" vType="typeWE" speedFactor="1.17" vaporized=""/>
    <tripinfo id="right_50" depart="208.00" departLane="51o_0" departPos="5.10" departSpeed="0.00" departDelay="0.00" arrival="309.00" arrivalLane="52i_0" arrivalPos="10.00" arrivalSpeed="9.70" duration="101.00" routeLength="1015.10" waitingTime="0.00" waitingCount="0" stopTime="0.00" timeLoss="16.62" rerouteNo="0" devices="tripinfo_right_50" vType="typeWE" speedFactor="0.85" vaporized=""/>
    <tripinfo id="right_52" depart="213.00" departLane="51o_0" departPos="5.10" departSpeed="0.00" departDelay="0.00" arrival="311.00" arrivalLane="52i_0" arrivalPos="10.00" arrivalSpeed="10.19" duration="98.00" routeLength="1015.10" waitingTime="0.00" waitingCount="0" stopTime="0.00" timeLoss="22.15" rerouteNo="0" devices="tripinfo_right_52" vType="typeWE" speedFactor="1.02" vaporized=""/>
    <tripinfo id="right_53" depart="218.00" departLane="51o_0" departPos="5.10" departSpeed="0.00" departDelay="0.00" arrival="313.00" arrivalLane="52i_0" arrivalPos="10.00" arrivalSpeed="10.37" duration="95.00" routeLength="1015.10" waitingTime="0.00" waitingCount="0" stopTime="0.00" timeLoss="22.33" rerouteNo="0" devices="tripinfo_right_53" vType="typeWE" speedFactor="1.10" vaporized=""/>
    <tripinfo id="right_54" depart="223.00" departLane="51o_0" departPos="5.10" departSpeed="0.00" departDelay="3.00" arrival="314.00" arrivalLane="52i_0" arrivalPos="10.00" arrivalSpeed="10.87" duration="91.00" routeLength="1015.10" waitingTime="0.00" waitingCount="0" stopTime="0.00" timeLoss="15.37" rerouteNo="0" devices="tripinfo_right_54" vType="typeWE" speedFactor="1.00" vaporized=""/>
    <tripinfo id="left_56" depart="223.00" departLane="52o_0" departPos="5.10" departSpeed="0.00" departDelay="0.00" arrival="319.00" arrivalLane="51i_0" arrivalPos="10.00" arrivalSpeed="10.06" duration="96.00" routeLength="1015.10" waitingTime="0.00" waitingCount="0" stopTime="0.00" timeLoss="14.21" rerouteNo="0" devices="tripinfo_left_56" vType="typeWE" speedFactor="0.90" vaporized=""/>
    <tripinfo id="left_57" depart="229.00" departLane="52o_0" departPos="5.10" departSpeed="0.00" departDelay="0.00" arrival="320.00" arrivalLane="51i_0" arrivalPos="10.00" arrivalSpeed="10.32" duration="91.00" routeLength="1015.10" waitingTime="0.00" waitingCount="0" stopTime="0.00" timeLoss="20.84" rerouteNo="0" devices="tripinfo_left_57" vType="typeWE" speedFactor="1.14" vaporized=""/>
    <tripinfo id="right_59" depart="231.00" departLane="51o_0" departPos="5.10" departSpeed="0.00" departDelay="0.00" arrival="324.00" arrivalLane="52i_0" arrivalPos="10.00" arrivalSpeed="10.96" duration="93.00" routeLength="1015.10" waitingTime="0.00" waitingCount="0" stopTime="0.00" timeLoss="15.03" rerouteNo="0" devices="tripinfo_right_59" vType="typeWE" speedFactor="0.97" vaporized=""/>
    <tripinfo id="left_60" depart="238.00" departLane="52o_0" departPos="5.10" departSpeed="0.00" departDelay="0.00" arrival="325.00" arrivalLane="51i_0" arrivalPos="10.00" arrivalSpeed="12.46" duration="87.00" routeLength="1015.10" waitingTime="0.00" waitingCount="0" stopTime="0.00" timeLoss="14.61" rerouteNo="0" devices="tripinfo_left_60" vType="typeWE" speedFactor="1.08" vaporized=""/>
    <tripinfo id="left_62" depart="246.00" departLane="52o_0" departPos="5.10" departSpeed="0.00" departDelay="0.00" arrival="337.00" arrivalLane="51i_0" arrivalPos="10.00" arrivalSpeed="11.70" duration="91.00" routeLength="1015.10" waitingTime="0.00" waitingCount="0" stopTime="0.00" timeLoss="15.76" rerouteNo="0" devices="tripinfo_left_62" vType="typeWE" speedFactor="1.02" vaporized=""/>
    <tripinfo id="left_63" depart="252.00" departLane="52o_0" departPos="5.10" departSpeed="0.00" departDelay="2.00" arrival="343.00" arrivalLane="51i_0" arrivalPos="10.00" arrivalSpeed="10.94" duration="91.00" routeLength="1015.10" waitingTime="0.00" waitingCount="0" stopTime="0.00" timeLoss="14.41" rerouteNo="0" devices="tripinfo_left_63" vType="typeWE" speedFactor="0.99" vaporized=""/>
    <tripinfo id="down_37" depart="163.00" departLane="54o_0" departPos="7.10" departSpeed="0.00" departDelay="1.00" arrival="350.00" arrivalLane="53i_0" arrivalPos="10.00" arrivalSpeed="13.58" duration="187.00" routeLength="1013.10" waitingTime="93.00" waitingCount="1" stopTime="0.00" timeLoss="126.38" rerouteNo="0" devices="tripinfo_down_37" vType="typeNS" speedFactor="1.18" vaporized=""/>
    <tripinfo id="down_38" depart="169.00" departLane="54o_0" departPos="7.10" departSpeed="0.00" departDelay="3.00" arrival="354.00" arrivalLane="53i_0" arrivalPos="10.00" arrivalSpeed="12.70" duration="185.00" routeLength="1013.10" waitingTime="89.00" waitingCount="1" stopTime="0.00" timeLoss="120.25" rerouteNo="0" devices="tripinfo_down_38" vType="typeNS" speedFactor="1.10" vaporized=""/>
    <tripinfo id="up_39" depart="168.00" departLane="53o_0" departPos="7.10" departSpeed="0.00" departDelay="0.00" arrival="360.00" arrivalLane="54i_0" arrivalPos="10.00" arrivalSpeed="10.36" duration="192.00" routeLength="1013.10" waitingTime="86.00" waitingCount="1" stopTime="0.00" timeLoss="112.76" rerouteNo="0" devices="tripinfo_up_39" vType="typeNS" speedFactor="0.90" vaporized=""/>
    <tripinfo id="up_58" depart="229.00" departLane="53o_0" departPos="7.10" departSpeed="0.00" departDelay="0.00" arrival="362.00" arrivalLane="54i_0" arrivalPos="10.00" arrivalSpeed="10.76" duration="133.00" routeLength="1013.10" waitingTime="27.00" waitingCount="1" stopTime="0.00" timeLoss="63.32" rerouteNo="0" devices="tripinfo_up_58" vType="typeNS" speedFactor="1.02" vaporized=""/>
    <tripinfo id="down_49" depart="207.00" departLane="54o_0" departPos="7.10" departSpeed="0.00" departDelay="0.00" arrival="367.00" arrivalLane="53i_0" arrivalPos="10.00" arrivalSpeed="9.69" duration="160.00" routeLength="1013.10" waitingTime="49.00" waitingCount="1" stopTime="0.00" timeLoss="75.97" rerouteNo="0" devices="tripinfo_down_49" vType="typeNS" speedFactor="0.85" vaporized=""/>
    <tripinfo id="down_55" depart="222.00" departLane="54o_0" departPos="7.10" departSpeed="0.00" departDelay="0.00" arrival="369.00" arrivalLane="53i_0" arrivalPos="10.00" arrivalSpeed="10.44" duration="147.00" routeLength="1013.10" waitingTime="38.00" waitingCount="1" stopTime="0.00" timeLoss="75.28" rerouteNo="0" devices="tripinfo_down_55" vType="typeNS" speedFactor="1.00" vaporized=""/>
    <tripinfo id="down_61" depart="240.00" departLane="54o_0" departPos="7.10" departSpeed="0.00" departDelay="0.00" arrival="371.00" arrivalLane="53i_0" arrivalPos="10.00" arrivalSpeed="10.64" duration="131.00" routeLength="1013.10" waitingTime="20.00" waitingCount="1" stopTime="0.00" timeLoss="67.30" rerouteNo="0" devices="tripinfo_down_61" vType="typeNS" speedFactor="1.12" vaporized=""/>
    <tripinfo id="down_65" depart="261.00" departLane="54o_0" departPos="7.10" departSpeed="0.00" departDelay="0.00" arrival="374.00" arrivalLane="53i_0" arrivalPos="10.00" arrivalSpeed="10.10" duration="113.00" routeLength="1013.10" waitingTime="2.00" waitingCount="1" stopTime="0.00" timeLoss="31.29" rerouteNo="0" devices="tripinfo_down_65" vType="typeNS" speedFactor="0.88" vaporized=""/>
    <tripinfo id="down_70" depart="285.00" departLane="54o_0" departPos="7.10" departSpeed="0.00" departDelay="0.00" arrival="376.00" arrivalLane="53i_0" arrivalPos="10.00" arrivalSpeed="10.48" duration="91.00" routeLength="1013.10" waitingTime="0.00" waitingCount="0" stopTime="0.00" timeLoss="20.35" rerouteNo="0" devices="tripinfo_down_70" vType="typeNS" speedFactor="1.02" vaporized=""/>
    <tripinfo id="up_76" depart="305.00" departLane="53o_0" departPos="7.10" departSpeed="0.00" departDelay="0.00" arrival="392.00" arrivalLane="54i_0" arrivalPos="10.00" arrivalSpeed="11.69" duration="87.00" routeLength="1013.10" waitingTime="0.00" waitingCount="0" stopTime="0.00" timeLoss="17.96" rerouteNo="0" devices="tripinfo_up_76" vType="typeNS" speedFactor="1.03" vaporized=""/>
    <tripinfo id="down_74" depart="301.00" departLane="54o_0" departPos="7.10" departSpeed="0.00" departDelay="0.00" arrival="392.00" arrivalLane="53i_0" arrivalPos="10.00" arrivalSpeed="10.93" duration="91.00" routeLength="1013.10" waitingTime="0.00" waitingCount="0" stopTime="0.00" timeLoss="16.20" rerouteNo="0" devices="tripinfo_down_74" vType="typeNS" speedFactor="0.96" vaporized=""/>
    <tripinfo id="up_78" depart="311.00" departLane="53o_0" departPos="7.10" departSpeed="0.00" departDelay="3.00" arrival="399.00" arrivalLane="54i_0" arrivalPos="10.00" arrivalSpeed="11.10" duration="88.00" routeLength="1013.10" waitingTime="0.00" waitingCount="0" stopTime="0.00" timeLoss="17.00" rerouteNo="0" devices="tripinfo_up_78" vType="typeNS" speedFactor="1.01" vaporized=""/>
    <tripinfo id="down_77" depart="308.00" departLane="54o_0" departPos="7.10" departSpeed="0.00" departDelay="0.00" arrival="399.00" arrivalLane="53i_0" arrivalPos="10.00" arrivalSpeed="11.36" duration="91.00" routeLength="1013.10" waitingTime="0.00" waitingCount="0" stopTime="0.00" timeLoss="17.94" rerouteNo="0" devices="tripinfo_down_77" vType="typeNS" speedFactor="0.98" vaporized=""/>
    <tripinfo id="down_79" depart="314.00" departLane="54o_0" departPos="7.10" departSpeed="0.00" departDelay="5.00" arrival="401.00" arrivalLane="53i_0" arrivalPos="10.00" arrivalSpeed="11.58" duration="87.00" routeLength="1013.10" waitingTime="0.00" waitingCount="0" stopTime="0.00" timeLoss="20.77" rerouteNo="0" devices="tripinfo_down_79" vType="typeNS" speedFactor="1.09" vaporized=""/>
    <tripinfo id="down_83" depart="330.00" departLane="54o_0" departPos="7.10" departSpeed="0.00" departDelay="0.00" arrival="422.00" arrivalLane="53i_0" arrivalPos="10.00" arrivalSpeed="11.24" duration="92.00" routeLength="1013.10" waitingTime="0.00" waitingCount="0" stopTime="0.00" timeLoss="17.84" rerouteNo="0" devices="tripinfo_down_83" vType="typeNS" speedFactor="0.97" vaporized=""/>
    <tripinfo id="down_86" depart="343.00" departLane="54o_0" departPos="7.10" departSpeed="0.00" departDelay="0.00" arrival="433.00" arrivalLane="53i_0" arrivalPos="10.00" arrivalSpeed="11.63" duration="90.00" routeLength="1013.10" waitingTime="0.00" waitingCount="0" stopTime="0.00" timeLoss="18.39" rerouteNo="0" devices="tripinfo_down_86" vType="typeNS" speedFactor="1.00" vaporized=""/>
    <tripinfo id="right_64" depart="257.00" departLane="51o_0" departPos="5.10" departSpeed="0.00" departDelay="0.00" arrival="458.00" arrivalLane="52i_0" arrivalPos="10.00" arrivalSpeed="10.69" duration="201.00" routeLength="1015.10" waitingTime="97.00" waitingCount="1" stopTime="0.00" timeLoss="121.71" rerouteNo="0" devices="tripinfo_right_64" vType="typeWE" speedFactor="0.94" vaporized=""/>